# vtk DataFile Version 3.0
results.vtk
ASCII
DATASET RECTILINEAR_GRID
DIMENSIONS 10 10 10
X_COORDINATES 10 double
0.000000 0.010000 0.020000 0.030000 0.040000 0.050000 0.060000 0.070000 0.080000 0.090000 
Y_COORDINATES 10 double
0.000000 0.010000 0.020000 0.030000 0.040000 0.050000 0.060000 0.070000 0.080000 0.090000 
Z_COORDINATES 10 double
0.000000 0.010000 0.020000 0.030000 0.040000 0.050000 0.060000 0.070000 0.080000 0.090000 
POINT_DATA 1000 
FIELD FieldData 1 
Temperatura 1 1000 double 
0.000091 
0.000086 
0.000086 
0.000085 
0.028963 
0.029091 
0.029088 
0.028935 
0.029022 
0.031547 
0.031602 
0.031434 
0.029023 
0.031608 
0.031664 
0.031469 
0.029023 
0.031606 
0.031638 
0.029021 
0.031556 
0.031635 
0.029021 
0.031554 
0.031640 
0.029020 
0.031553 
0.031638 
0.028958 
0.031488 
0.031551 
0.026480 
0.028910 
0.028995 
0.029035 
0.027632 
0.027594 
0.027573 
7.528511 
7.544227 
7.544278 
7.534118 
7.535021 
7.883556 
7.889968 
7.878942 
7.535116 
7.890133 
7.896688 
7.884573 
7.535116 
7.890161 
7.895663 
7.535058 
7.885419 
7.895584 
7.535054 
7.885353 
7.895808 
7.534956 
7.885244 
7.895645 
7.528074 
7.878282 
7.886472 
7.175362 
7.523525 
7.532658 
0.031543 
0.030015 
0.029973 
0.029948 
7.873394 
7.889856 
7.889879 
7.878814 
7.880193 
8.243318 
8.249978 
8.237988 
7.880286 
8.250155 
8.256948 
8.243802 
7.880283 
8.250163 
8.255869 
7.880208 
8.245128 
8.256012 
7.880207 
8.245049 
8.256021 
7.880113 
8.244946 
8.255864 
7.872858 
8.237720 
8.246213 
7.505157 
7.868041 
7.877656 
0.031606 
0.030074 
0.030032 
0.030007 
7.880136 
7.896614 
7.896627 
7.885521 
7.886912 
8.250339 
8.256995 
8.245049 
7.887012 
8.257196 
8.264050 
8.250838 
7.887005 
8.257140 
8.262889 
7.886941 
8.252196 
8.263032 
7.886940 
8.252117 
8.263036 
7.886848 
8.252004 
8.262880 
7.879675 
8.244769 
8.253315 
7.511607 
7.874829 
7.884380 
0.031607 
0.030075 
0.030033 
0.030008 
7.880231 
7.896706 
7.896719 
7.885616 
7.887012 
8.250431 
8.257116 
8.245154 
7.887110 
8.257234 
8.264151 
8.250947 
7.887033 
8.252370 
8.262917 
7.887030 
8.252227 
8.263123 
7.887029 
8.252221 
8.263124 
7.886936 
8.252110 
8.262929 
7.879776 
8.244864 
8.253409 
7.511704 
7.874938 
7.884472 
0.031607 
0.030075 
0.030033 
0.030008 
7.880231 
7.896708 
7.896720 
7.885617 
7.887012 
8.250432 
8.257116 
8.245156 
7.887111 
8.257232 
8.264153 
8.250948 
7.887032 
8.252303 
8.262915 
7.887031 
8.252227 
8.263123 
7.887030 
8.252219 
8.263080 
7.886937 
8.252069 
8.260578 
7.879776 
8.244864 
8.253364 
7.511705 
7.874941 
7.884469 
0.031607 
0.030075 
0.030033 
0.030008 
7.880231 
7.896708 
7.896720 
7.885617 
7.887012 
8.250432 
8.257116 
8.245156 
7.887111 
8.257232 
8.264153 
8.250948 
7.887032 
8.252301 
8.262915 
7.887031 
8.252227 
8.263123 
7.887030 
8.252219 
8.263079 
7.886937 
8.252068 
8.260530 
7.879776 
8.244864 
8.253364 
7.511705 
7.874941 
7.884469 
0.031607 
0.030075 
0.030034 
0.030004 
7.880231 
7.896708 
7.896720 
7.885617 
7.887012 
8.250432 
8.257116 
8.245156 
7.887111 
8.257232 
8.264153 
8.250949 
7.887032 
8.252301 
8.262915 
7.887031 
8.252227 
8.263123 
7.887030 
8.252219 
8.263079 
7.886937 
8.252068 
8.260530 
7.879776 
8.244864 
8.253382 
7.511705 
7.874941 
7.884470 
0.031607 
0.030077 
0.030069 
0.029908 
7.880231 
7.896708 
7.896724 
7.885583 
7.887012 
8.250432 
8.257116 
8.245155 
7.887111 
8.257232 
8.264153 
8.250949 
7.887032 
8.252301 
8.262915 
7.887031 
8.252227 
8.263123 
7.887030 
8.252219 
8.263079 
7.886937 
8.252068 
8.260552 
7.879776 
8.244873 
8.254531 
7.511705 
7.874941 
7.884483 
0.031607 
0.030077 
0.030070 
0.029905 
7.880231 
7.896708 
7.896724 
7.885583 
7.887012 
8.250432 
8.257116 
8.245155 
7.887111 
8.257232 
8.264153 
8.250949 
7.887032 
8.252301 
8.262915 
7.887031 
8.252227 
8.263123 
7.887030 
8.252219 
8.263079 
7.886937 
8.252068 
8.260552 
7.879776 
8.244873 
8.254544 
7.511705 
7.874941 
7.884483 
0.031621 
0.031636 
0.031640 
0.031639 
0.031575 
0.029019 
7.895126 
7.895671 
7.895860 
7.895759 
7.888815 
7.534963 
8.255237 
8.255870 
8.256062 
8.255966 
8.248699 
7.880110 
8.262328 
8.262890 
8.263066 
8.262972 
8.255791 
7.886827 
8.262443 
8.263139 
8.263165 
8.263058 
8.255292 
8.262444 
8.263143 
8.263165 
8.263018 
8.255278 
8.262443 
8.263155 
8.263165 
8.263018 
8.255278 
8.262383 
8.263155 
8.263165 
8.263018 
8.255321 
8.262383 
8.263155 
8.263165 
8.263046 
8.257071 
8.262383 
8.263155 
8.263165 
8.263047 
8.257095 
0.000086 
0.000086 
0.000086 
0.029029 
0.029092 
0.029092 
0.031538 
0.031607 
0.031607 
0.031601 
0.031670 
0.031670 
0.031620 
0.031671 
0.031670 
0.031669 
0.031672 
0.031640 
0.031671 
0.031666 
0.031477 
0.031669 
0.031639 
0.031605 
0.031575 
0.029020 
0.029022 
0.027543 
0.027634 
0.027610 
7.539386 
7.544452 
7.544450 
7.884858 
7.890248 
7.890247 
7.891628 
7.896986 
7.896983 
7.892336 
7.897080 
7.897023 
7.896981 
7.897125 
7.894468 
7.897060 
7.896878 
7.883842 
7.896961 
7.895706 
7.890087 
7.888812 
7.535026 
7.535099 
0.029917 
0.030016 
0.029990 
7.884666 
7.890075 
7.890067 
8.244531 
8.250268 
8.250262 
8.251552 
8.257334 
8.257324 
8.252418 
8.257446 
8.257360 
8.257313 
8.257463 
8.253284 
8.257409 
8.256058 
8.257293 
8.255895 
8.250100 
8.248703 
7.880172 
7.880266 
0.029976 
0.030076 
0.030050 
7.891429 
7.896822 
7.896820 
8.251538 
8.257330 
8.257324 
8.258641 
8.264378 
8.264369 
8.259451 
8.264476 
8.264168 
8.264352 
8.264280 
8.251616 
8.264447 
8.263029 
8.264344 
8.262904 
8.257150 
8.255787 
7.886910 
7.886993 
0.029977 
0.030077 
0.030051 
7.891531 
7.896916 
7.896915 
8.251629 
8.257438 
8.257436 
8.258739 
8.264480 
8.264468 
8.259545 
8.264577 
8.264269 
8.264457 
8.264363 
8.251493 
8.264543 
8.263128 
8.264448 
8.263007 
8.257254 
8.255891 
7.875994 
7.886930 
7.887094 
0.029977 
0.030077 
0.030051 
7.891531 
7.896917 
7.896915 
8.251632 
8.257439 
8.257438 
8.258741 
8.264481 
8.264469 
8.259548 
8.264577 
8.264270 
8.264458 
8.264363 
8.251491 
8.264545 
8.263129 
8.264448 
8.263008 
8.257256 
8.255893 
7.875892 
7.886930 
7.887094 
0.029977 
0.030077 
0.030074 
7.891531 
7.896917 
7.896916 
8.251632 
8.257439 
8.257438 
8.258743 
8.264481 
8.264469 
8.259640 
8.264580 
8.264270 
8.264461 
8.264363 
8.251491 
8.264545 
8.263129 
8.264448 
8.263008 
8.257256 
8.255892 
7.875892 
7.886930 
7.887094 
0.029977 
0.030077 
0.030074 
7.891531 
7.896917 
7.896916 
8.251633 
8.257439 
8.257438 
8.258849 
8.264486 
8.264469 
8.264348 
8.264680 
8.264272 
8.264556 
8.264368 
8.251491 
8.264546 
8.263129 
8.264448 
8.263006 
8.257256 
8.255843 
7.875892 
7.886930 
7.887094 
0.029977 
0.030077 
0.030074 
7.891531 
7.896917 
7.896916 
8.251633 
8.257439 
8.257438 
8.258852 
8.264486 
8.264468 
8.264448 
8.264684 
8.264216 
8.264561 
8.264368 
8.251486 
8.264547 
8.263129 
8.264449 
8.263006 
8.257271 
8.255841 
7.875913 
7.886930 
7.887094 
0.029977 
0.030077 
0.030074 
7.891531 
7.896917 
7.896916 
8.251633 
8.257439 
8.257438 
8.258852 
8.264484 
8.264426 
8.264449 
8.264633 
8.261872 
8.264561 
8.264367 
8.251442 
8.264547 
8.263129 
8.264449 
8.263006 
8.257272 
8.255841 
7.875914 
7.886930 
7.887094 
0.000086 
0.029089 
0.031603 
0.031667 
0.031668 
0.031666 
0.031662 
0.031662 
0.031663 
0.031600 
0.029020 
0.027607 
7.544256 
7.890043 
7.896788 
7.896880 
7.896823 
7.896663 
7.896654 
7.896140 
7.889933 
7.535027 
0.029987 
7.889859 
8.250038 
8.257096 
8.257210 
8.257132 
8.256855 
8.256679 
8.256660 
8.249931 
7.880172 
0.030047 
7.896612 
8.257094 
8.264171 
8.264254 
8.264044 
8.264124 
8.263756 
8.263741 
8.256902 
7.886909 
0.030048 
7.896703 
8.257212 
8.264260 
8.264349 
8.264144 
8.264224 
8.264237 
8.264224 
8.257033 
7.886994 
0.030048 
7.896703 
8.257214 
8.264261 
8.264352 
8.264147 
8.264225 
8.264243 
8.264227 
8.257033 
7.886995 
0.030048 
7.896703 
8.257214 
8.264261 
8.264352 
8.264147 
8.264225 
8.264243 
8.264227 
8.257033 
7.886995 
0.030048 
7.896703 
8.257214 
8.264261 
8.264352 
8.264147 
8.264225 
8.264243 
8.264227 
8.257032 
7.886995 
0.030048 
7.896703 
8.257214 
8.264260 
8.264350 
8.264145 
8.264225 
8.264243 
8.264227 
8.257032 
7.886995 
0.030048 
7.896703 
8.257214 
8.264258 
8.264303 
8.264143 
8.264225 
8.264243 
8.264227 
8.257032 
7.886995 
0.000081 
0.000000 
0.029029 
0.026540 
0.031542 
0.028961 
0.031605 
0.029022 
0.031606 
0.029023 
0.031606 
0.029023 
0.031606 
0.029023 
0.031605 
0.029023 
0.031505 
0.031541 
0.029022 
0.028969 
0.029019 
0.031543 
0.026243 
0.000000 
7.537320 
7.182222 
7.883217 
7.528251 
7.890023 
7.535015 
7.890127 
7.535114 
7.890127 
7.535115 
7.890125 
7.535115 
7.890017 
7.535114 
7.885206 
7.883313 
7.535017 
7.530430 
7.534930 
7.883170 
0.028501 
0.000000 
7.882651 
7.512286 
8.242976 
7.873080 
8.250034 
7.880185 
8.250134 
7.880283 
8.250134 
7.880284 
8.250128 
7.880284 
8.247007 
8.249978 
7.880283 
8.244862 
8.243059 
7.880188 
7.875289 
7.880086 
8.242956 
0.028557 
0.000000 
7.889426 
7.518730 
8.250027 
7.879864 
8.257061 
7.886907 
8.257183 
7.887010 
8.257183 
7.887011 
8.257182 
7.887011 
8.253924 
8.256970 
7.887009 
8.251892 
8.250097 
7.886908 
7.882008 
7.886823 
8.250014 
0.028558 
0.000000 
7.889536 
7.518820 
8.250120 
7.879964 
8.257183 
7.887003 
8.257288 
7.887110 
8.257286 
7.887111 
8.257284 
7.887111 
8.254031 
8.257109 
7.887110 
8.252015 
8.250195 
7.887009 
7.882108 
7.886912 
8.250118 
0.028558 
0.000000 
7.889539 
7.518820 
8.250122 
7.879964 
8.257188 
7.887005 
8.257290 
7.887111 
8.257288 
7.887112 
8.257286 
7.887112 
8.254034 
8.257111 
7.887110 
8.252015 
8.250196 
7.887010 
7.882109 
7.886913 
8.250118 
0.028558 
0.000000 
7.889539 
7.518820 
8.250122 
7.879964 
8.257188 
7.887005 
8.257290 
7.887111 
8.257288 
7.887112 
8.257286 
7.887112 
8.254034 
8.257111 
7.887110 
8.252015 
8.250196 
7.887010 
7.882109 
7.886913 
8.250118 
0.028558 
0.000000 
7.889539 
7.518820 
8.250122 
7.879964 
8.257188 
7.887005 
8.257290 
7.887111 
8.257288 
7.887112 
8.257286 
7.887112 
8.254034 
8.257111 
7.887110 
8.252015 
8.250196 
7.887010 
7.882109 
7.886913 
8.250118 
0.028558 
0.000000 
7.889539 
7.518820 
8.250122 
7.879964 
8.257188 
7.887005 
8.257290 
7.887111 
8.257288 
7.887112 
8.257286 
7.887112 
8.254034 
8.257111 
7.887110 
8.252015 
8.250196 
7.887010 
7.882109 
7.886913 
8.250118 
0.028558 
0.000000 
7.889539 
7.518820 
8.250122 
7.879964 
8.257188 
7.887005 
8.257290 
7.887111 
8.257288 
7.887112 
8.257286 
7.887112 
8.254034 
8.257111 
7.887110 
8.252015 
8.250196 
7.887010 
7.882109 
7.886913 
8.250118 
